Siesta Version  : 4.1.5
Architecture    : unknown
Compiler version: GNU Fortran (Ubuntu 11.4.0-1ubuntu1~22.04) 11.4.0
Compiler flags  : gfortran -O2 -fPIC -ftree-vectorize -fallow-argument-mismatch
PP flags        : -DFC_HAVE_ABORT -DSIESTA__DIAG_2STAGE -DSIESTA__MRRR
Libraries       : libsiestaLAPACK.a libsiestaBLAS.a
SERIAL version

* Running in serial mode
>> Start of run:  27-JAN-2024  15:02:04

                           ***********************       
                           *  WELCOME TO SIESTA  *       
                           ***********************       

reinit: Reading from standard input
reinit: Dumped input in INPUT_TMP.95733
************************** Dump of input data file ****************************
NumberOfSpecies     1
%block ChemicalSpeciesLabel
 1  1  H_sz      # Species index, atomic number, species label
%endblock ChemicalSpeciesLabel
AtomicCoordinatesFormat  Ang
%block AtomicCoordinatesAndAtomicSpecies
  0.000      0.000      0.000   1
%endblock AtomicCoordinatesAndAtomicSpecies
PAO.basis-size SZ
PAO.energy-shift 300 meV
************************** End of input data file *****************************

reinit: -----------------------------------------------------------------------
reinit: System Name: 
reinit: -----------------------------------------------------------------------
reinit: System Label: siesta
reinit: -----------------------------------------------------------------------

initatom: Reading input for the pseudopotentials and atomic orbitals ----------
Species number:   1 Atomic number:    1 Label: H_sz

Ground state valence configuration:   1s01
Reading pseudopotential information in formatted form from H_sz.psf

Valence configuration for pseudopotential generation:
1s( 1.00) rc: 1.25
2p( 0.00) rc: 1.25
3d( 0.00) rc: 1.25
4f( 0.00) rc: 1.25
For H_sz, standard SIESTA heuristics set lmxkb to 1
 (one more than the basis l, including polarization orbitals).
Use PS.lmax or PS.KBprojectors blocks to override.

<basis_specs>
===============================================================================
H_sz                 Z=   1    Mass=  1.0100        Charge= 0.17977+309
Lmxo=0 Lmxkb= 1    BasisType=split      Semic=F
L=0  Nsemic=0  Cnfigmx=1
          i=1  nzeta=1  polorb=0  (1s)
            splnorm:   0.15000    
               vcte:    0.0000    
               rinn:    0.0000    
               qcoe:    0.0000    
               qyuk:    0.0000    
               qwid:   0.10000E-01
                rcs:    0.0000    
            lambdas:    1.0000    
-------------------------------------------------------------------------------
L=0  Nkbl=1  erefs: 0.17977+309
L=1  Nkbl=1  erefs: 0.17977+309
===============================================================================
</basis_specs>

atom: Called for H_sz                  (Z =   1)

read_vps: Pseudopotential generation method:
read_vps: ATM3      Troullier-Martins                       
Valence charge for ps generation:    1.00000

xc_check: Exchange-correlation functional:
xc_check: Ceperley-Alder
V l=0 = -2*Zval/r beyond r=  1.2343
V l=1 = -2*Zval/r beyond r=  1.2189
All V_l potentials equal beyond r=  1.2343
This should be close to max(r_c) in ps generation
All pots = -2*Zval/r beyond r=  1.2343

VLOCAL1: 99.0% of the norm of Vloc inside     28.493 Ry
VLOCAL1: 99.9% of the norm of Vloc inside     64.935 Ry
atom: Maximum radius for 4*pi*r*r*local-pseudopot. charge    1.45251
atom: Maximum radius for r*vlocal+2*Zval:    1.21892
GHOST: No ghost state for L =  0
GHOST: No ghost state for L =  1

KBgen: Kleinman-Bylander projectors: 
   l= 0   rc=  1.364359   el= -0.467325   Ekb= -2.005361   kbcos= -0.336422
   l= 1   rc=  1.434438   el=  0.001430   Ekb= -0.501708   kbcos= -0.021697

KBgen: Total number of Kleinman-Bylander projectors:    4
atom: -------------------------------------------------------------------------

atom: SANKEY-TYPE ORBITALS:

SPLIT: Orbitals with angular momentum L= 0

SPLIT: Basis orbitals for state 1s

SPLIT: PAO cut-off radius determined from an
SPLIT: energy shift=  0.022049 Ry

   izeta = 1
                 lambda =    1.000000
                     rc =    4.708991
                 energy =   -0.446429
                kinetic =    0.942775
    potential(screened) =   -1.389204
       potential(ionic) =   -1.926771
atom: Total number of Sankey-type orbitals:  1

atm_pop: Valence configuration (for local Pseudopot. screening):
 1s( 1.00)                                                            
Vna: chval, zval:    1.00000   1.00000

Vna:  Cut-off radius for the neutral-atom potential:   4.708991

atom: _________________________________________________________________________

prinput: Basis input ----------------------------------------------------------

PAO.BasisType split     

%block ChemicalSpeciesLabel
    1    1 H_sz                    # Species index, atomic number, species label
%endblock ChemicalSpeciesLabel

%block PAO.Basis                 # Define Basis set
H_sz                  1                    # Species label, number of l-shells
 n=1   0   1                         # n, l, Nzeta 
   4.709   
   1.000   
%endblock PAO.Basis

prinput: ----------------------------------------------------------------------

coor:   Atomic-coordinates input format  =     Cartesian coordinates
coor:                                          (in Angstroms)

siesta: Atomic coordinates (Bohr) and species
siesta:      0.00000   0.00000   0.00000  1        1

siesta: Automatic unit cell vectors (Ang):
siesta:    5.482158    0.000000    0.000000
siesta:    0.000000    5.482158    0.000000
siesta:    0.000000    0.000000    5.482158

siesta: System type = atom      

initatomlists: Number of atoms, orbitals, and projectors:      1     1     4

siesta: ******************** Simulation parameters ****************************
siesta:
siesta: The following are some of the parameters of the simulation.
siesta: A complete list of the parameters used, including default values,
siesta: can be found in file out.fdf
siesta:
redata: Spin configuration                          = none
redata: Number of spin components                   = 1
redata: Time-Reversal Symmetry                      = T
redata: Spin spiral                                 = F
redata: Long output                                 =   F
redata: Number of Atomic Species                    =        1
redata: Charge density info will appear in .RHO file
redata: Write Mulliken Pop.                         = NO
redata: Matel table size (NRTAB)                    =     1024
redata: Mesh Cutoff                                 =   300.0000 Ry
redata: Net charge of the system                    =     0.0000 |e|
redata: Min. number of SCF Iter                     =        0
redata: Max. number of SCF Iter                     =     1000
redata: SCF convergence failure will abort job
redata: SCF mix quantity                            = Hamiltonian
redata: Mix DM or H after convergence               =   F
redata: Recompute H after scf cycle                 =   F
redata: Mix DM in first SCF step                    =   T
redata: Write Pulay info on disk                    =   F
redata: New DM Occupancy tolerance                  = 0.000000000001
redata: No kicks to SCF
redata: DM Mixing Weight for Kicks                  =     0.5000
redata: Require Harris convergence for SCF          =   F
redata: Harris energy tolerance for SCF             =     0.000100 eV
redata: Require DM convergence for SCF              =   T
redata: DM tolerance for SCF                        =     0.000100
redata: Require EDM convergence for SCF             =   F
redata: EDM tolerance for SCF                       =     0.001000 eV
redata: Require H convergence for SCF               =   T
redata: Hamiltonian tolerance for SCF               =     0.001000 eV
redata: Require (free) Energy convergence for SCF   =   F
redata: (free) Energy tolerance for SCF             =     0.000100 eV
redata: Using Saved Data (generic)                  =   F
redata: Use continuation files for DM               =   F
redata: Neglect nonoverlap interactions             =   F
redata: Method of Calculation                       = Diagonalization
redata: Electronic Temperature                      =   299.9869 K
redata: Fix the spin of the system                  =   F
redata: Dynamics option                             = Single-point calculation
mix.SCF: Pulay mixing                            = Pulay
mix.SCF:    Variant                              = stable
mix.SCF:    History steps                        = 2
mix.SCF:    Linear mixing weight                 =     0.250000
mix.SCF:    Mixing weight                        =     0.250000
mix.SCF:    SVD condition                        = 0.1000E-07
redata: ***********************************************************************

%block SCF.Mixers
  Pulay
%endblock SCF.Mixers

%block SCF.Mixer.Pulay
  # Mixing method
  method pulay
  variant stable

  # Mixing options
  weight 0.2500
  weight.linear 0.2500
  history 2
%endblock SCF.Mixer.Pulay

DM_history_depth set to one: no extrapolation allowed by default for geometry relaxation
Size of DM history Fstack: 1
Total number of electrons:     1.000000
Total ionic charge:     1.000000
 Kpoints in:            1 . Kpoints trimmed:            1

siesta: k-grid: Number of k-points =     1
siesta: k-grid: Cutoff (effective) =     2.741 Ang
siesta: k-grid: Supercell and displacements
siesta: k-grid:    1   0   0      0.000
siesta: k-grid:    0   1   0      0.000
siesta: k-grid:    0   0   1      0.000

diag: Algorithm                                     = D&C
diag: Used triangular part                          = Lower
diag: Absolute tolerance                            =  0.100E-15
diag: Orthogonalization factor                      =  0.100E-05
diag: Memory factor                                 =  1.0000


ts: **************************************************************
ts: Save H and S matrices                           =    F
ts: Save DM and EDM matrices                        =    F
ts: Only save the overlap matrix S                  =    F
ts: **************************************************************

************************ Begin: TS CHECKS AND WARNINGS ************************
************************ End: TS CHECKS AND WARNINGS **************************


                     ====================================
                        Single-point calculation
                     ====================================

outcell: Unit cell vectors (Ang):
        5.482158    0.000000    0.000000
        0.000000    5.482158    0.000000
        0.000000    0.000000    5.482158

outcell: Cell vector modules (Ang)   :    5.482158    5.482158    5.482158
outcell: Cell angles (23,13,12) (deg):     90.0000     90.0000     90.0000
outcell: Cell volume (Ang**3)        :    164.7611
<dSpData1D:S at geom step 0
  <sparsity:sparsity for geom step 0
    nrows_g=1 nrows=1 sparsity=1.0000 nnzs=1, refcount: 7>
  <dData1D:(new from dSpData1D) n=1, refcount: 1>
refcount: 1>
new_DM -- step:     1
Initializing Density Matrix...
DM filled with atomic data:
<dSpData2D:DM initialized from atoms
  <sparsity:sparsity for geom step 0
    nrows_g=1 nrows=1 sparsity=1.0000 nnzs=1, refcount: 8>
  <dData2D:DM n=1 m=1, refcount: 1>
refcount: 1>
No. of atoms with KB's overlaping orbs in proc 0. Max # of overlaps:       1       1
New grid distribution:   1
           1       1:   30    1:   30    1:   30

InitMesh: MESH =    60 x    60 x    60 =      216000
InitMesh: (bp) =    30 x    30 x    30 =       27000
InitMesh: Mesh cutoff (required, used) =   300.000   331.056 Ry
ExtMesh (bp) on 0 =    86 x    86 x    86 =      636056
PhiOnMesh: Number of (b)points on node 0 =                27000
PhiOnMesh: nlist on node 0 =                11500

stepf: Fermi-Dirac step function

siesta: Program's energy decomposition (eV):
siesta: Ebs     =        -5.542091
siesta: Eions   =        19.707322
siesta: Ena     =         5.237875
siesta: Ekin    =        12.827538
siesta: Enl     =        -3.389304
siesta: Eso     =         0.000000
siesta: Edftu   =         0.000000
siesta: DEna    =         0.000000
siesta: DUscf   =         0.000000
siesta: DUext   =         0.000000
siesta: Exc     =        -6.803066
siesta: eta*DQ  =         0.000000
siesta: Emadel  =         0.000000
siesta: Emeta   =         0.000000
siesta: Emolmec =         0.000000
siesta: Ekinion =         0.000000
siesta: Eharris =       -11.834279
siesta: Etot    =       -11.834279
siesta: FreeEng =       -11.870116

        iscf     Eharris(eV)        E_KS(eV)     FreeEng(eV)     dDmax    Ef(eV) dHmax(eV)
   scf:    1      -11.834279      -11.834279      -11.870116  0.000000 -5.542091  0.000000

SCF Convergence by DM+H criterion
max |DM_out - DM_in|         :     0.0000000000
max |H_out - H_in|      (eV) :     0.0000000000
SCF cycle converged after 1 iterations
timer: Routine,Calls,Time,% = IterSCF        1       0.063  38.83

Using DM_out to compute the final energy and forces
No. of atoms with KB's overlaping orbs in proc 0. Max # of overlaps:       1       1

siesta: E_KS(eV) =              -11.8343

siesta: E_KS - E_eggbox =       -11.8343

siesta: Atomic forces (eV/Ang):
----------------------------------------
   Tot   -0.000000    0.000000   -0.000000
----------------------------------------
   Max    0.000000
   Res    0.000000    sqrt( Sum f_i^2 / 3N )
----------------------------------------
   Max    0.000000    constrained

Stress tensor Voigt[x,y,z,yz,xz,xy] (kbar):        0.00        0.00        0.00       -0.00       -0.00       -0.00
(Free)E + p*V (eV/cell)      -11.8701
Target enthalpy (eV/cell)      -11.8701

siesta: Program's energy decomposition (eV):
siesta: Ebs     =        -5.542091
siesta: Eions   =        19.707322
siesta: Ena     =         5.237875
siesta: Ekin    =        12.827538
siesta: Enl     =        -3.389304
siesta: Eso     =         0.000000
siesta: Edftu   =         0.000000
siesta: DEna    =         0.000000
siesta: DUscf   =         0.000000
siesta: DUext   =         0.000000
siesta: Exc     =        -6.803066
siesta: eta*DQ  =         0.000000
siesta: Emadel  =         0.000000
siesta: Emeta   =         0.000000
siesta: Emolmec =         0.000000
siesta: Ekinion =         0.000000
siesta: Eharris =       -11.834279
siesta: Etot    =       -11.834279
siesta: FreeEng =       -11.870116

siesta: Final energy (eV):
siesta:  Band Struct. =      -5.542091
siesta:       Kinetic =      12.827538
siesta:       Hartree =       4.778626
siesta:       Edftu   =       0.000000
siesta:       Eso     =       0.000000
siesta:    Ext. field =       0.000000
siesta:   Exch.-corr. =      -6.803066
siesta:  Ion-electron =     -19.059488
siesta:       Ion-ion =      -3.577889
siesta:       Ekinion =       0.000000
siesta:         Total =     -11.834279
siesta:         Fermi =      -5.542091

siesta: Stress tensor (static) (eV/Ang**3):
siesta:     0.000000   -0.000000   -0.000000
siesta:    -0.000000    0.000000   -0.000000
siesta:    -0.000000   -0.000000    0.000000

siesta: Cell volume =        164.761077 Ang**3

siesta: Pressure (static):
siesta:                Solid            Molecule  Units
siesta:          -0.00000000         -0.00000000  Ry/Bohr**3
siesta:          -0.00000001         -0.00000001  eV/Ang**3
siesta:          -0.00001486         -0.00001486  kBar
(Free)E+ p_basis*V_orbitals  =         -11.789208
(Free)Eharris+ p_basis*V_orbitals  =         -11.789208

siesta: Electric dipole (a.u.)  =   -0.000000   -0.000000   -0.000000
siesta: Electric dipole (Debye) =   -0.000000   -0.000000   -0.000000

cite: Please see "siesta.bib" for an exhaustive BiBTeX file.
cite: Please clearly indicate Siesta version in published work: 4.1.5
cite: This calculation has made use of the following articles
cite: which are encouraged to be cited in a published work.
        Primary SIESTA paper
          DOI: www.doi.org/10.1088/0953-8984/14/11/302


timer: Elapsed wall time (sec) =       0.639
timer: CPU execution times (sec):

Routine            Calls   Time/call    Tot.time        %
siesta                 1       0.215       0.215    99.99
Setup                  1       0.052       0.052    24.16
bands                  1       0.000       0.000     0.00
KSV_init               1       0.000       0.000     0.00
IterGeom               1       0.163       0.163    75.63
state_init             1       0.000       0.000     0.21
hsparse                1       0.000       0.000     0.01
overlap                1       0.000       0.000     0.11
Setup_H0               1       0.047       0.047    21.75
naefs                  2       0.000       0.000     0.07
MolMec                 2       0.000       0.000     0.00
kinefsm                2       0.000       0.000     0.04
nlefsm                 2       0.000       0.001     0.43
DHSCF_Init             1       0.046       0.046    21.22
DHSCF1                 1       0.016       0.016     7.41
INITMESH               1       0.000       0.000     0.00
DHSCF2                 1       0.030       0.030    13.78
REMESH                 1       0.001       0.001     0.69
REORD                 14       0.000       0.005     2.29
PHION                  1       0.008       0.008     3.49
COMM_BSC              15       0.001       0.008     3.86
POISON                 4       0.009       0.037    17.39
fft                    8       0.003       0.028    12.84
IterSCF                1       0.063       0.063    29.29
setup_H                2       0.031       0.063    29.15
DHSCF                  3       0.038       0.114    53.19
DHSCF3                 3       0.030       0.089    41.65
rhoofd                 3       0.000       0.001     0.61
XC                     3       0.015       0.046    21.55
GXC-CellXC             3       0.013       0.040    18.62
cellXC                 3       0.013       0.040    18.60
vmat                   3       0.000       0.001     0.58
compute_dm             1       0.000       0.000     0.03
diagon                 1       0.000       0.000     0.03
r-eigvec               1       0.000       0.000     0.00
r-buildHS              1       0.000       0.000     0.00
rdiag                  1       0.000       0.000     0.00
r-buildD               1       0.000       0.000     0.00
PostSCF                1       0.052       0.052    24.11
DHSCF4                 1       0.025       0.025    11.54
dfscf                  1       0.015       0.015     6.75
overfsm                1       0.000       0.000     0.01
state_analysis         1       0.000       0.000     0.21
siesta_move            1       0.000       0.000     0.00
Analysis               1       0.000       0.000     0.15
siesta_analysis        1       0.000       0.000     0.15
optical                1       0.000       0.000     0.00
  
>> End of run:  27-JAN-2024  15:02:05
Job completed
